# vtk DataFile Version 5.1
vtk output
ASCII
DATASET POLYDATA
POINTS 8749 float
-23.8107 68.9529 5.41949 -22.0723 68.4826 5.17946 -23.2297 68.897 5.41688 
-25.2966 69.1795 5.63948 -22.3434 68.2956 4.99203 -21.9778 68.8345 5.54532 
-23.7155 69.3365 5.8536 -24.0441 68.5972 5.12726 -25.1153 68.7986 5.31602 
-20.4918 68.1637 5.39205 -20.6991 67.805 5.00775 -19.0738 67.4777 5.62865 
-22.5381 69.2168 5.91323 -20.4031 68.463 5.79331 -19.1396 67.8879 6.07986 
-19.5751 68.2906 6.57959 -18.3483 67.3955 6.39431 -26.6877 69.3929 5.94837 
-28.7689 69.3275 5.72964 -28.39 69.5795 6.17196 -26.5376 68.7341 5.3274 
-26.3482 69.5438 6.15051 -20.1365 66.0528 4.26725 -19.469 67.3672 5.24915 
-17.0051 66.1677 6.72146 -17.0023 64.8305 5.78995 -16.563 65.0749 6.41017 
-17.477 65.2828 5.50425 -15.8596 64.2871 7.1308 -17.0193 64.1042 5.63545 
-16.7881 63.4346 5.82328 -15.8156 63.1912 7.02538 -15.8455 62.5639 7.061 
-17.8267 67.0703 6.59452 -18.1936 67.358 7.17966 -17.932 65.1202 5.07585 
-17.8868 65.7168 5.3304 -18.7392 65.812 4.79338 -17.4909 64.5709 5.29038 
-26.45 69.7386 6.86801 -29.6648 69.8669 7.1319 -26.3526 69.6203 7.35267 
-29.4992 69.7729 6.27222 -22.0222 69.2352 6.80792 -23.8003 69.5346 6.97845 
-25.3011 67.7158 4.63949 -26.0705 67.9247 4.77945 -25.9988 68.8208 5.37466 
-28.2207 68.632 5.14291 -27.3675 67.9919 4.78913 -27.9821 68.3237 4.94047 
-28.1145 68.0318 4.73827 -27.0189 67.8769 4.74392 -28.8891 68.1535 4.67564 
-23.6688 67.1738 4.30695 -28.434 69.0121 5.45019 -29.4957 69.347 5.56433 
-18.0636 66.1575 8.63232 -17.0318 65.2846 8.85946 -16.9417 64.2604 9.42022 
-17.999 66.6232 8.18401 -16.5414 65.4108 8.46398 -16.0054 64.4137 8.91579 
-18.3811 65.0668 9.26233 -17.478 64.0803 9.57843 -17.7729 63.6978 9.69007 
-18.9226 67.2852 8.01292 -20.506 67.914 8.00901 -17.3493 66.4595 7.9254 
-18.7684 67.5769 7.48662 -19.513 68.2352 6.96768 -17.0793 61.9961 10.0051 
-16.1327 62.5709 9.80393 -17.2067 60.9593 9.99431 -19.9385 66.8964 8.56877 
-19.9301 65.5704 9.10432 -22.4021 67.3482 8.61018 -21.633 66.5192 8.83914 
-23.0038 67.2387 8.67929 -23.0345 69.2863 7.24247 -23.0753 68.785 7.88657 
-25.9257 69.4413 7.63388 -24.2839 69.5306 7.14554 -21.9501 68.6241 7.77619 
-26.7788 69.5349 7.56731 -27.3768 69.2818 7.95235 -21.3079 68.9757 6.86815 
-23.0046 68.2814 8.23409 -23.3965 67.6594 8.56101 -15.6081 62.7107 9.48064 
-15.4706 61.7022 9.2166 -15.5599 61.219 8.51426 -15.7553 61.6625 9.6034 
-16.2504 61.06 9.8107 -16.7186 61.0217 9.94909 -15.8404 61.1244 9.49846 
-16.2532 65.4739 7.84159 -17.0518 66.4043 7.33063 -19.4315 62.0348 9.70135 
-19.8623 62.8977 9.55503 -20.776 62.8469 9.34651 -21.5943 63.7914 9.14881 
-18.2961 62.8813 9.83293 -19.1119 63.7823 9.57905 -19.8412 61.3597 9.60066 
-19.3167 61.5363 9.73568 -19.6646 60.5369 9.61762 -20.5364 60.9338 9.39762 
-21.4453 61.3477 9.14377 -21.243 60.4114 9.18257 -21.9938 60.4044 8.97741 
-22.639 60.2674 8.8294 -21.5966 62.7076 9.13844 -20.4795 60.4646 9.39825 
-19.9495 64.8121 9.29752 -21.0412 64.5933 9.20278 -20.9237 65.649 9.05818 
-22.19 66.161 8.90965 -21.5751 64.4261 9.1373 -18.2524 61.2565 9.94329 
-18.1721 62.3214 9.91656 -17.7071 61.3852 10.0098 -18.2572 60.7536 9.91786 
-17.7333 60.8575 9.97874 -33.0665 31.0349 10.7841 -32.2337 30.3266 11.2226 
-31.8618 30.1812 11.0325 -34.127 32.0665 10.3528 -31.5917 29.9267 11.3859 
-31.4449 29.7705 11.906 -30.8299 29.6802 11.1014 -31.9336 30.4804 10.4725 
-32.0395 30.8223 10.0489 -31.7221 31.0036 9.72389 -31.1787 30.1094 10.5237 
-34.672 32.5546 10.9445 -34.9906 33.0261 10.222 -35.3321 33.517 10.9065 
-35.8103 34.2383 9.99764 -36.9448 36.8976 9.68869 -32.9789 30.8677 12.1345 
-34.386 32.466 12.0253 -32.7086 30.7941 12.66 -33.4368 31.473 12.528 
-33.7598 31.5535 11.7269 -34.8681 33.4572 12.2459 -35.7227 35.1584 11.8889 
-34.3912 33.6763 13.0278 -32.6133 30.5452 12.1315 -32.3473 30.4769 12.6311 
-31.2664 29.7428 12.5343 -31.9836 30.2314 12.7254 -34.9868 33.0706 11.3193 
-36.7594 36.5217 10.1541 -29.6477 29.4655 10.858 -29.9266 29.4063 11.1252 
-29.1707 29.3628 10.9442 -29.1482 29.9354 10.0777 -30.4989 29.721 10.7682 
-29.6139 29.2705 11.3184 -28.3337 29.4981 10.6563 -28.602 29.6719 10.3629 
-28.7735 29.2199 11.2627 -30.097 30.0125 10.1741 -30.2188 30.3959 9.81953 
-29.981 29.2779 11.5658 -29.9848 29.2345 12.0655 -35.7101 34.649 8.74581 
-36.2959 36.2434 7.84803 -36.4168 35.7488 8.6552 -36.2346 37.2466 6.97965 
-36.9016 37.7236 7.49279 -36.8988 38.637 6.78694 -37.1675 39.5876 6.66743 
-34.7813 33.1642 9.41957 -35.7657 35.8968 7.62231 -35.2242 34.5831 8.30856 
-35.0725 35.4195 7.63863 -36.2528 40.5014 4.99793 -36.2168 42.092 4.18032 
-35.736 43.5401 3.45939 -37.187 37.6602 8.88852 -37.1817 38.9608 7.13228 
-34.1983 33.0446 9.02596 -33.7545 32.283 9.49523 -32.3424 31.7147 9.34946 
-34.2479 33.8411 8.42918 -29.4515 29.7226 13.5044 -29.5991 29.4157 13.0737 
-29.852 29.7046 13.4265 -30.0243 29.4412 12.9786 -29.754 29.2383 12.4954 
-30.2329 29.3333 12.4542 -30.4886 29.5513 12.9165 -30.1387 30.0732 13.7086 
-30.0306 30.4927 13.9667 -29.9208 30.9431 14.1199 -28.5549 30.1315 13.8735 
-30.5662 30.1297 13.6408 -27.645 29.492 13.004 -27.3925 29.4121 12.653 
-26.4492 29.8731 13.0344 -27.7571 29.9709 13.6904 -27.9415 29.1832 12.1207 
-27.3274 29.3166 11.6942 -26.7485 29.5202 12.1766 -28.118 29.1817 11.5886 
-27.4934 29.3987 11.1247 -27.1588 29.4476 11.2125 -29.3584 29.1389 12.1791 
-27.1706 29.3703 12.1757 -31.4092 30.3532 13.4682 -31.7348 30.634 13.5071 
-32.4322 30.824 13.1129 -32.5599 31.3343 13.4664 -30.8722 30.5811 13.8493 
-31.6105 30.0183 12.7919 -27.7421 30.6189 14.1105 -27.379 30.7681 14.1601 
-26.4511 30.7419 14.0731 -26.1097 30.9728 14.1849 -28.111 31.1282 14.2161 
-26.2361 31.9362 14.4797 -27.358 31.5987 14.3011 -25.998 32.3032 14.5352 
-26.4738 32.2399 14.4346 -26.4114 30.3808 13.7509 -26.0372 30.6935 13.9421 
-29.2832 30.625 14.0753 -28.4641 30.8916 14.168 -27 63.0572 4.10886 
-27.8884 63.2176 4.18395 -27.8071 62.2505 3.99548 -26.6018 63.794 4.16593 
-28.3013 64.1839 4.40187 -28.9997 63.2409 4.17847 -25.9806 62.4811 3.8677 
-26.2473 61.5913 3.85429 -27.7868 64.816 4.43407 -28.9094 64.6625 4.47213 
-29.9696 63.5622 4.26992 -31.708 64.7371 4.35218 -30.1554 62.7058 4.0164 
-28.0762 60.9955 3.93802 -28.9733 61.0277 3.82753 -29.27 58.9919 4.03393 
-30.4233 53.576 4.71318 -30.9561 54.4382 4.2917 -27.0538 60.6518 3.97586 
-30.0374 60.9223 3.66441 -25.6548 63.5342 3.89655 -25.1681 63.8125 3.75932 
-28.0903 66.4082 4.39954 -29.0219 66.2956 4.42062 -29.7767 66.8703 4.31767 
-29.5823 67.1112 4.32113 -30.3572 67.3225 4.21892 -27.3224 66.7779 4.36774 
-26.4817 66.324 4.2418 -29.0372 67.3786 4.38526 -27.9658 67.2317 4.43938 
-29.6976 67.9102 4.40099 -27.3981 67.2873 4.47283 -29.3262 67.879 4.45628 
-29.5658 66.0336 4.42581 -30.1916 66.4977 4.32148 -31.2675 65.6367 4.31814 
-30.8295 66.9053 4.19368 -25.9065 65.7758 4.09209 -25.3519 65.111 3.90825 
-24.9308 65.3775 3.83378 -24.4372 64.6282 3.60563 -34.3086 51.6393 2.90338 
-35.5603 45.6231 2.96676 -35.7458 49.8773 3.18328 -32.9721 51.2524 3.46562 
-31.6496 52.9186 4.13677 -32.5657 46.762 4.34157 -34.4159 58.1495 4.00966 
-25.5861 59.7246 3.77279 -25.0831 61.0409 3.53869 -24.4844 60.4258 3.33658 
-25.0117 58.9154 3.66683 -24.1174 60.2014 3.21084 -26.545 60.2694 3.9515 
-25.2852 55.9998 4.20591 -26.5088 51.4007 5.23444 -27.4848 47.2968 5.97009 
-27.0179 47.7135 5.77761 -24.3626 61.5091 3.29078 -23.8303 62.2253 3.14522 
-23.6765 62.8066 3.15657 -27.6901 58.442 4.33094 -38.5999 58.5878 5.15074 
-38.033 56.8981 5.17161 -37.0995 65.2808 4.11773 -35.505 66.582 3.80771 
-34.6197 67.1125 3.74554 -39.046 54.3561 5.62222 -38.5409 62.201 4.77556 
-39.5211 56.6943 5.66358 -38.1949 50.6888 5.49915 -36.0444 60.6183 4.67109 
-34.1799 63.87 4.30537 -33.7018 65.64 4.06473 -33.0833 64.9182 4.23342 
-33.9917 62.907 4.39773 -33.8768 66.5159 3.889 -36.7513 66.4005 3.94164 
-36.0905 67.9862 3.80508 -36.7151 67.6911 3.95317 -34.8778 68.7032 3.73555 
-38.8583 63.285 4.84632 -38.5175 48.3912 5.83691 -38.7918 47.6654 6.16479 
-38.3011 47.3423 5.70304 -38.0302 48.5054 5.44237 -36.5667 49.2405 3.97975 
-37.6523 47.0877 4.92999 -37.4545 45.9718 4.45361 -36.4675 47.084 3.425 
-36.7927 45.9173 3.64061 -36.1368 44.1505 3.377 -35.9127 56.0886 4.5887 
-37.9401 45.6648 5.12457 -37.7931 45.3917 4.86513 -31.8836 67.8328 3.95764 
-32.1899 68.1389 3.91989 -31.2922 68.0074 4.08167 -32.1768 68.9171 4.14561 
-33.0411 67.4089 3.82873 -31.0686 67.6147 4.10268 -30.9304 68.4676 4.30157 
-30.5398 67.877 4.21647 -30.5336 68.5182 4.44818 -29.5343 68.1512 4.52807 
-31.3034 68.7335 4.32298 -33.9029 68.4127 3.70801 -32.6708 68.9926 4.04719 
-32.0158 66.937 4.03019 -39.7929 49.7706 6.6442 -39.0449 64.402 5.04973 
-37.7486 67.7522 4.61255 -40.2338 51.887 8.64305 -30.0135 49.5089 10.04 
-29.35 50.56 10.0124 -30.1485 44.9601 10.5721 -28.8369 38.9421 12.0646 
-28.1705 44.473 11.3171 -26.6888 44.1112 11.9972 -27.0427 47.6215 11.1763 
-26.0569 46.0952 11.8193 -28.2778 39.7283 12.1368 -27.9716 52.3371 9.96915 
-30.4543 44.505 10.5678 -31.132 43.6519 10.6406 -31.0131 40.4885 11.2471 
-30.497 37.9167 11.9117 -31.0049 37.7259 12.0104 -27.4337 57.5919 8.96738 
-26.6724 61.1253 8.62248 -26.9793 57.7338 8.93422 -29.1522 56.0713 9.29355 
-25.7368 57.8216 8.95622 -25.1821 58.0614 8.93301 -24.7137 57.8813 9.0111 
-24.4108 60.638 8.53798 -24.2935 58.9184 8.79774 -23.2598 59.6032 8.78046 
-22.8069 60.794 8.77237 -24.0753 61.4847 8.5374 -26.929 53.0014 10.0272 
-26.1645 53.8125 9.95647 -26.7815 51.0827 10.5197 -27.1254 35.432 13.4763 
-27.8682 34.8365 13.3136 -28.5905 35.4392 12.9257 -27.1432 34.4382 13.6931 
-28.3626 33.5783 13.546 -28.0363 37.7876 12.6224 -26.42 35.0721 13.8664 
-25.4907 35.6866 14.1741 -27.1766 33.6776 13.8828 -26.4692 34.1666 14.0437 
-25.8059 33.9475 14.371 -26.0032 33.1178 14.4539 -25.6728 34.7649 14.2653 
-29.2672 36.4703 12.4855 -29.0304 34.1282 13.2266 -26.7385 37.8965 13.1913 
-26.4817 40.5057 12.8195 -25.8129 42.8475 12.6382 -25.726 37.2067 13.7967 
-33.0152 48.5547 10.8853 -32.7856 52.3196 10.9242 -31.228 40.1267 11.3614 
[...]
CELL_DATA 17494
FIELD FieldData 2
plab 6 17494 double
0.99489059078 0.00064300560176 0.0014791693111 0.0017012480898 0.0006430115317 0.0006429746884 0.83563970286 0.005169843313 0.014649384426 
0.1342015569 0.005178059429 0.0051614530673 0.78109152785 0.0063056245758 0.025570894237 0.17441811252 0.0063097754677 0.0063040653427 
0.96372758574 0.0025106892703 0.0094553902264 0.019283887752 0.0025125204619 0.0025099265508 0.99742666333 0.00030278950789 0.0013624554147 
0.00030275137702 0.00030269495423 0.00030264541533 0.15532609385 0.0028188549408 0.83339842279 0.002819075389 0.0028188137303 0.0028187392965 
0.99877655916 0.00020963470623 0.00020960511258 0.00027681634693 0.00031779285238 0.00020959181913 0.99874604523 0.00020791140583 0.00020790928782 
0.00042217030578 0.00020806398606 0.00020789978944 0.027662029429 0.0024764997741 0.0037592454807 0.0058934364895 0.9577398064 0.0024689824252 
0.99112823734 0.0028923693359 0.0032184567158 0.00092176712497 0.00092001456152 0.00091915491912 0.99730867327 0.00031438295463 0.0014338166618 
0.00031437869142 0.00031437514496 0.00031437327565 0.99858767293 0.00035188251867 0.00035622993554 0.00023474140834 0.00023473804209 0.00023473516825 
0.99933178942 0.00011699552805 0.00020024622127 0.00011699336656 0.00011698929668 0.00011698617024 0.99896034412 0.00016511576215 0.00037959834085 
0.00016498278011 0.00016498059711 0.00016497839897 0.96492441422 0.015310584291 0.012610376256 0.0024032147039 0.0023800445601 0.0023713659653 
0.99661302522 0.00065060700081 0.0014712774107 0.0004219994204 0.00042158895986 0.00042150198746 0.79674699585 0.16472335604 0.020546587905 
0.0060014495319 0.0059954263433 0.0059861843367 0.99785118707 0.00054535837012 0.00036886617519 0.00049704057003 0.0003689479242 0.00036859988772 
0.99804517959 0.00031497189945 0.00066165219256 0.00038884230964 0.00029474214109 0.00029461186546 0.99671497902 0.001420993008 0.00049110102593 
0.00051371093483 0.0004303144995 0.00042890150894 0.99816422018 0.00046869071925 0.00055558521041 0.00027052315084 0.000270496811 0.00027048392487 
0.99837615366 0.0004169133983 0.00049046027148 0.00023898655202 0.00023879565293 0.00023869046614 0.32063245934 0.0034467471853 0.66558124217 
0.0034465872196 0.0034465296885 0.0034464343989 0.99451846771 0.00054354125864 0.0033073755572 0.00054354091868 0.00054353789002 0.00054353666604 
0.99715868326 0.00033204081212 0.0015132457216 0.00033201345653 0.00033200944909 0.00033200730271 0.0046596888763 0.9871955969 0.0049616979878 
0.001061149572 0.001060951241 0.0010609154237 0.0066979595202 0.98442377702 0.0050789805509 0.001266452859 0.0012664211661 0.0012664088852 
0.0013223807559 0.993018398 0.0036118413012 0.00068250012972 0.00068244674423 0.00068243306489 6.7230445554e-05 0.99969214886 6.5048855899e-05 
5.8524256902e-05 5.8523982574e-05 5.8523594872e-05 5.6425218945e-05 0.99971990675 5.593074954e-05 5.5916599029e-05 5.5910581474e-05 5.5910098497e-05 
0.00010474963603 0.99961898929 6.907093419e-05 6.9063406113e-05 6.9063380608e-05 6.9063352232e-05 0.00015907844839 0.99895948612 0.0004041821442 
0.00015909027726 0.00015908427774 0.00015907873333 0.8874210146 0.074781238894 0.022894688009 0.0050135900196 0.0049593501586 0.0049301183177 
0.39438214775 0.52170372415 0.053707414413 0.010109435369 0.010072127464 0.010025150853 0.025386571705 0.95826470677 0.0080508452126 
0.0027669702922 0.0027662666809 0.0027646393354 0.0042705519827 0.98915812538 0.0035345338929 0.0010127741065 0.0010122153927 0.0010117992409 
0.039364835036 0.93698322895 0.012736899249 0.0036449986299 0.0036393351763 0.0036307029595 0.00080948980597 0.99516484626 0.0025693849664 
0.00048592373208 0.00048541094506 0.00048494428586 0.023765410752 0.96671265657 0.0038764738444 0.0018822069791 0.0018817165778 0.0018815352788 
0.0020315543393 0.99349787745 0.0025615960842 0.00063632616097 0.0006363230353 0.0006363229258 0.0062499124877 0.98489683075 0.005080680893 
0.0012575561148 0.0012575186524 0.0012575011039 0.012552214933 0.97720845712 0.0053102873601 0.0016430541435 0.0016430061461 0.0016429802932 
0.13375781604 0.83822926455 0.012303082346 0.005238327847 0.0052364626446 0.0052350465749 0.0088728619844 0.98268737011 0.0045409361609 
0.001300044726 0.001299656124 0.0012991308957 0.99955067538 8.5907058399e-05 8.589899114e-05 8.5899015633e-05 8.5906275845e-05 0.00010571327413 
0.99957952991 8.4093824813e-05 8.4093824813e-05 8.4093824813e-05 8.4093824813e-05 8.4094793618e-05 0.99964535857 7.0928286458e-05 7.092827966e-05 
7.092827966e-05 7.092827966e-05 7.092830213e-05 0.99959321581 7.9908607169e-05 7.990858989e-05 7.9908619519e-05 7.9908619519e-05 8.7149758133e-05 
0.99950852018 9.82958439e-05 9.8295823855e-05 9.8295831715e-05 9.8295840341e-05 9.829647913e-05 0.9995081777 9.8364458434e-05 9.8364458434e-05 
9.8364458434e-05 9.8364458434e-05 9.8364469504e-05 0.99961995057 7.6009102336e-05 7.600885157e-05 7.6008892745e-05 7.600888956e-05 7.6013696349e-05 
0.99948342818 0.00010331266688 0.00010331172105 0.0001033121145 0.00010331207836 0.0001033232354 0.99953000331 9.1307944178e-05 9.1307888638e-05 
9.1307888638e-05 9.1307888638e-05 0.00010476507542 0.99931797915 0.00011880162303 0.00011879955711 0.00011880188714 0.00011880202798 0.00020681575355 
0.99812060262 0.00028374531028 0.00028372251407 0.0002840240877 0.00028403853878 0.00074386692944 0.99959499464 8.100105165e-05 8.100105165e-05 
8.100105165e-05 8.100105165e-05 8.1001149508e-05 0.99940016245 0.00011996738813 0.00011996737313 0.00011996739663 0.00011996740512 0.00011996799184 
0.99957045632 8.5908723766e-05 8.5908723766e-05 8.5908723766e-05 8.5908723766e-05 8.5908788173e-05 0.99930909851 0.00013818008458 0.00013818008458 
0.00013818019358 0.00013818019358 0.000138180935 0.99953996506 9.2006547649e-05 9.200635471e-05 9.2006548061e-05 9.2006742834e-05 9.200874303e-05 
0.99930467189 0.00013906418751 0.00013906393831 0.00013906445403 0.0001390644546 0.00013907107807 0.99950828306 9.8343371603e-05 9.8343371603e-05 
9.8343374885e-05 9.834338185e-05 9.8343438407e-05 0.99954178241 9.1643526497e-05 9.1643484392e-05 9.1643514975e-05 9.1643484392e-05 9.164357841e-05 
0.9994990988 0.00012424931945 9.4162518814e-05 9.4162526268e-05 9.4162510574e-05 9.416432254e-05 0.9994742683 0.00012625230187 9.6171411613e-05 
9.6171479945e-05 9.6171406684e-05 0.0001109651019 0.99962451757 7.5096436414e-05 7.5096326289e-05 7.509634381e-05 7.5096342871e-05 7.509698304e-05 
0.99957118621 8.5763424248e-05 8.5762504278e-05 8.5762512324e-05 8.5762503727e-05 8.5762845616e-05 0.99899108555 0.00018006176956 0.00018006326261 
0.00018007402167 0.00018007314387 0.00028864225485 0.99953480923 9.3038102733e-05 9.3038102733e-05 9.3038102733e-05 9.3038102733e-05 9.3038362638e-05 
0.9984414925 0.00024813885857 0.0002481401647 0.00024814095255 0.0002481407344 0.00056594679429 0.99948351082 0.00010329783657 0.00010329783224 
0.00010329783224 0.00010329783224 0.0001032978512 0.99957710612 8.4578283865e-05 8.4577322187e-05 8.4577427869e-05 8.4577385563e-05 8.4583463396e-05 
0.99951741954 9.6515377141e-05 9.6515377141e-05 9.6515514275e-05 9.6515505427e-05 9.6518688483e-05 0.99963275811 7.3463726715e-05 7.3441289838e-05 
7.3441366329e-05 7.3441216368e-05 7.34542913e-05 0.99947616148 0.00012652790357 9.8848931453e-05 9.8850123813e-05 9.8847865113e-05 0.00010076369918 
0.99951109473 9.782781628e-05 9.7745510992e-05 9.777219479e-05 9.7746154746e-05 9.7813592095e-05 0.9995103454 9.7930928317e-05 9.7930912817e-05 
9.7930916085e-05 9.7930907924e-05 9.7930931989e-05 0.99933896163 0.0001785156249 0.00012010439676 0.00012010494069 0.0001201042186 0.00012220918512 
0.99948206704 0.00010358694027 0.00010358629075 0.00010358657132 0.00010358623898 0.00010358691727 0.99958296705 8.3406664313e-05 8.3406542412e-05 
8.3406570215e-05 8.3406528495e-05 8.3406643876e-05 0.99934197058 0.00013160602817 0.00013160579953 0.00013160579953 0.00013160579953 0.0001316059931 
0.99956137002 8.7726384077e-05 8.7725730941e-05 8.7725950309e-05 8.7725683419e-05 8.7726235778e-05 0.99926055883 0.00020364623674 0.00013392100538 
0.0001339210102 0.00013392099923 0.00013403192283 0.99944122342 0.00011198158638 0.00011166496172 0.0001116678872 0.00011166629937 0.00011179584811 
0.99954715918 9.0607664882e-05 9.0553054125e-05 9.0554648598e-05 9.0553806099e-05 9.0571647385e-05 0.99875914183 0.00034173680681 0.00022470379624 
0.00022470752407 0.00022470755153 0.00022500249621 0.99958931881 8.2136320405e-05 8.2135496036e-05 8.2135593276e-05 8.2135559383e-05 8.2138221685e-05 
0.99935026976 0.00017944622629 0.00011750354534 0.00011750544585 0.00011750354431 0.00011777148193 0.9992811507 0.00019769293861 0.00013028401596 
0.00013028401991 0.00013028401135 0.00013030431735 0.0024262007928 0.00055269838739 0.00083832254026 0.00081211213976 0.99481798011 0.00055268603125 
0.004082834228 0.0011015783081 0.0012649976648 0.0058691336493 0.98657991003 0.0011015461163 0.0020687437299 0.00063297624739 0.00095914946156 
0.0014576469648 0.9942485968 0.00063288679447 0.0050241440723 0.0014895914942 0.001489594155 0.014249904376 0.97625717617 0.0014895897323 
0.016175140084 0.0019108117599 0.00289866169 0.0043979030227 0.97270677126 0.001910712178 0.0063472898697 0.0010147664945 0.0015394007321 
0.0015401361698 0.98854365449 0.0010147522478 0.0044900539632 0.00072641817644 0.0011017867928 0.00072644514622 0.99222887641 0.00072641951453 
0.0036185601909 0.00055302206195 0.00055302578406 0.00083887620199 0.9938834967 0.00055301905836 0.0019568888459 0.00048302441641 0.00073265846166 
0.00061706573531 0.99572735883 0.00048300371045 0.0015650181991 0.00047859410307 0.00047871738617 0.0011020717501 0.9958971454 0.0004784531662 
0.0027163077474 0.00055065837093 0.00055066086439 0.0011019994123 0.99452972134 0.00055065226166 0.010062027983 0.00094704385392 0.00094710153602 
0.0014366751383 0.98566014 0.00094701149151 0.031210883874 0.0073568946566 0.0073569062238 0.46574618257 0.4809722568 0.0073568758715 
0.0068078687471 0.001933340127 0.0019333815479 0.96625819664 0.021133901689 0.0019333112492 0.0020534583155 0.00050267357693 0.00050267449393 
0.99538781903 0.0010507021734 0.00050267241218 0.0024443815304 0.00083177197851 0.00083198689187 0.99101023785 0.0040499015823 0.00083172016916 
0.008201213725 0.0031613999013 0.003161474302 0.88926221624 0.093052393032 0.0031613027984 0.46120037097 0.0046351384486 0.00463514147 
0.0046352731002 0.52025895046 0.0046351255434 0.88102755977 0.0030341749836 0.0030342186375 0.0030344193248 0.10683557618 0.0030340510963 
0.023221430447 0.0012572753305 0.001257654771 0.0012581182927 0.97174374504 0.001261776121 0.97851833343 0.0014973793842 0.0015004006246 
0.0015023019544 0.015481185435 0.0015003991674 0.0037911226977 0.00047921824304 0.00047922328862 0.00047922685026 0.99429199084 0.00047921808073 
0.0048925851012 0.00055298086592 0.00055299151958 0.00055299694854 0.99289546487 0.00055298069938 0.0022269370043 0.00037009156907 0.00037009796125 
0.0003701035714 0.99629267839 0.00037009150065 0.00088410702999 0.00027601844682 0.00027601973545 0.00041864474205 0.99786919162 0.00027601842636 
0.00097608898233 0.00027703378323 0.00027703563214 0.00042019025248 0.99777261759 0.00027703376279 0.0094144798514 0.00095962654592 0.00095963026181 
0.0014548073494 0.98625187184 0.00095958415324 0.065438258041 0.0036098609462 0.0054753216018 0.0054792503911 0.91638879552 0.003608513498 
0.0051412594336 0.0005514694242 0.00055147843087 0.000551493207 0.9926528304 0.00055146910216 0.008713350141 0.00083314226376 0.00083317226294 
0.0012637240577 0.98752346908 0.00083314219547 0.0036701757938 0.00063327753972 0.00063328238128 0.0009605271452 0.99346946089 0.00063327624798 
0.0034916595281 0.00055917738139 0.00055918835005 0.00084815465684 0.99398264319 0.00055917689526 0.0099321948486 0.00072308524459 0.00072308873115 
0.0007230917128 0.98717545464 0.00072308481886 0.020790948554 0.001217494047 0.0012175672046 0.0012177848001 0.97433876535 0.0012174400423 
0.00071623983787 0.00024011562474 0.00024011919957 0.00036419417149 0.99819921556 0.00024011560668 0.99866004108 0.00021266296793 0.00021266297995 
0.0002126636535 0.00048930633939 0.00021266298172 0.96119673162 0.0015386163616 0.0015386194589 0.001538633023 0.032648783208 0.0015386163311 
0.92364593393 0.002171055711 0.0021710554927 0.0021720710515 0.067668837561 0.0021710462513 0.9564443916 0.0019388370614 0.001938837078 
0.0019388383643 0.035800258878 0.0019388370221 0.99849645698 0.00041592460562 0.00027183694337 0.00027187786426 0.00027182649606 0.00027207711478 
0.99914526605 0.00023535604776 0.00015473400074 0.00015473699292 0.00015473291894 0.0001551739912 0.99878268801 0.00039372725255 0.00020588653348 
0.00020589054925 0.00020588552056 0.00020592213297 0.99894620249 0.00029180877102 0.00019048688417 0.00019049970144 0.00019042229748 0.0001905798556 
0.99891584781 0.00029884633107 0.00019620494362 0.0001962095041 0.00019619875841 0.00019669265352 0.99893433012 0.00029240879891 0.00019330591944 
0.0001933114189 0.00019329301445 0.00019335072505 0.99634687235 0.0014166944068 0.0005589803309 0.00055902950734 0.00055871938907 0.00055970401751 
0.99637336712 0.0010231412736 0.0006500018549 0.00065050850775 0.00064996308181 0.00065301816489 0.99732532745 0.00074381414755 0.00048228001875 
0.00048248433006 0.0004821702625 0.00048392379363 0.99838343238 0.00044603874415 0.00029257306528 0.00029258508629 0.00029255740343 0.00029281332087 
0.9979101795 0.00058024470539 0.00037714430479 0.00037715219085 0.00037712822882 0.00037815107322 0.99816495685 0.00044009698066 0.0003486966542 
0.00034872490914 0.00034858223239 0.00034894237693 0.99436172057 0.0024755581353 0.0007903884436 0.00079056023834 0.00079027068713 0.00079150192469 
0.99864406879 0.00037612065973 0.00024489079272 0.0002449063881 0.00024484503566 0.00024516832939 0.99883713711 0.00030685070564 0.00021385751591 
0.00021392614031 0.00021384192296 0.00021438660451 0.055383220613 0.93446409936 0.0025383288068 0.0025381428346 0.0025378304326 0.0025383779529 
0.0010446937719 0.99793911464 0.0002540416309 0.00025404818556 0.0002540419196 0.00025405984906 0.38567660005 0.59663500656 0.0044339762919 
0.0044181325683 0.0044179626694 0.0044183218555 0.00010975085586 0.99959375009 7.4124544103e-05 7.4123880837e-05 7.4119141789e-05 7.4131488667e-05 
0.8270770839 0.15808434631 0.0037095811488 0.0037095931725 0.0037095304508 0.0037098650164 0.88767798496 0.10217923107 0.0025351307444 
0.0025351657857 0.0025350776529 0.0025374097894 0.9950281756 0.0024574730824 0.00059548114292 0.00059562768298 0.00059529326838 0.00072794922404 
0.99606385411 0.0020300062164 0.00047652327484 0.00047652980533 0.00047650336042 0.00047658322837 0.049177304089 0.9432933685 0.0018822693648 
0.0018823171689 0.0018822518105 0.0018824890661 0.84948004254 0.13678870832 0.0034029792374 0.0034044641727 0.0034022082076 0.003521597528 
0.66096518866 0.31957831884 0.0048614220391 0.0048624067255 0.0048612462746 0.0048714174544 0.768413401 0.19826263614 0.0083267365487 
0.0083272100496 0.0083263792666 0.0083436369966 0.99214256737 0.0046678096733 0.00079735797981 0.00079740629202 0.0007972829193 0.00079757576488 
0.99525366544 0.002033044306 0.0006781854631 0.00067821829702 0.00067813941017 0.0006787470799 0.98590254679 0.0098689396203 0.0010570121073 
0.0010570334935 0.0010569165318 0.0010575514546 0.9993107964 0.00017047684743 0.00012966687082 0.00012967044328 0.00012965840109 0.00012973103332 
0.9982691425 0.00049418303405 0.00030906129421 0.00030909268774 0.00030895783652 0.00030956264405 0.99941853599 0.00012908158397 0.00011309666524 
0.00011310003333 0.00011305109973 0.00011313463129 0.96617905467 0.024702684471 0.0022744672545 0.002274568895 0.0022742080413 0.0022950166644 
0.99467642316 0.0021243304166 0.00079874471143 0.00079878590045 0.00079867868155 0.00080303712678 0.99797349704 0.00070591355704 0.00033012837087 
0.00033014063382 0.00033011223194 0.00033020816749 0.9990722423 0.00028583611841 0.00016047628095 0.00016047941262 0.00016046734854 0.00016049854425 
0.97294701539 0.020407943711 0.0016610856016 0.0016611863554 0.0016607985844 0.0016619703545 0.96501412352 0.028869188931 0.0015286876149 
0.0015286914957 0.0015286553103 0.0015306531287 0.99114921622 0.0061422426709 0.0006771188451 0.00067712592214 0.0006771100372 0.00067718630487 
0.9949992496 0.002699872887 0.0005752123435 0.00057522862564 0.00057515109735 0.00057528545012 0.98041186239 0.014733011298 0.0011808129434 
0.0011808279906 0.0011808053627 0.0013126800108 0.99929705989 0.00019417530652 0.00012718253219 0.00012719365304 0.00012715920112 0.00012722941923 
0.71238273293 0.2694062036 0.0045523642036 0.0045524215855 0.004552216957 0.0045540607202 0.00050992087401 0.99880146744 0.00017216754831 
0.00017215103297 0.00017214411111 0.00017214899651 0.089261746047 0.89926942856 0.0028672156648 0.0028673762903 0.0028665696789 0.0028676637619 
0.00019820978613 0.99921163486 0.00019816719989 0.00013066493832 0.00013065206526 0.00013067115466 0.98852057257 0.0083168741215 0.0007906210465 
0.00079062170489 0.00079061992253 0.00079069063562 0.99438836025 0.0030928429471 0.00058300411729 0.00058300793195 0.00058299711022 0.00076978764561 
0.99882938814 0.00029369812049 0.00019362213694 0.00019362292382 0.00019362169037 0.00029604699276 0.91384499647 0.030604415349 0.0044784578497 
0.0044784760132 0.0044784069833 0.042115247332 0.99696578242 0.001625251633 0.00035194849774 0.00035206322167 0.00035185988762 0.00035309434106 
0.98934428175 0.0052352642449 0.0010247638175 0.0010247718363 0.0010247525249 0.0023461658305 0.99074584685 0.0016401708795 0.00092932284581 
0.00092932784508 0.00092930077306 0.004826030805 0.9915157429 0.0048402492706 0.00080661619557 0.00080661764266 0.00080661529253 0.0012241586976 
0.97119006866 0.023472253718 0.001334334855 0.0013343406688 0.0013343337816 0.0013346683149 0.9984366809 0.00062187710329 0.00023534433394 
0.00023534956518 0.00023533874599 0.0002354093497 0.99744327274 0.0006978776804 0.00035351652265 0.00035352962289 0.00035351594672 0.00079828748601 
0.051877619599 0.93362058737 0.0064109200418 0.0026970518727 0.0026961917337 0.0026976293815 0.026928195414 0.96629015127 0.0018783342195 
0.0016344494616 0.0016343879556 0.001634481682 0.279799687 0.70111590855 0.0055789542179 0.0045014502846 0.0045009986569 0.0045030012965 
0.99960673108 7.8653786087e-05 7.8653758878e-05 7.8653778246e-05 7.8653815424e-05 7.8653782986e-05 0.99952162809 9.5674524778e-05 9.5674621606e-05 
9.5674938033e-05 9.567320615e-05 9.5674618343e-05 0.9991838368 0.00014799352293 0.00022435179864 0.00014792780872 0.0001479271255 0.00014796294712 
0.99882183223 0.00021365142031 0.0003238278592 0.00021352879358 0.00021358200143 0.00021357769338 0.99903184181 0.00017555824407 0.00026613471844 
0.0001754848091 0.00017548467547 0.00017549574789 0.99953904406 9.2191187564e-05 9.2191187564e-05 9.2191187564e-05 9.2191187564e-05 9.2191187564e-05 
0.99941318686 0.00011736262835 0.00011736263327 0.00011736263327 0.0001173626186 0.00011736262835 0.9995792749 8.4145067003e-05 8.4144993763e-05 
8.4144993763e-05 8.4144993763e-05 8.4145047052e-05 0.99946465111 0.00010711511749 0.00010705232631 0.00010707869113 0.00010707356482 0.00010702918763 
0.99920441354 0.0001595983798 0.00015888274538 0.00015922046604 0.000159307038 0.00015857783483 0.99908538575 0.00015927797203 0.00015927812305 
0.00015927834623 0.00027750195727 0.00015927785177 0.99950368093 9.9263582198e-05 9.9264033781e-05 9.926398124e-05 9.9263901661e-05 9.9263573803e-05 
0.99952379921 9.5240125205e-05 9.524021972e-05 9.5240160218e-05 9.5240160587e-05 9.5240124886e-05 0.99965589224 6.8821543265e-05 6.8821577369e-05 
6.8821559983e-05 6.8821542548e-05 6.8821540942e-05 0.99944438222 0.00011130281001 0.00011096545706 0.00011118325808 0.00011120122631 0.00011096502933 
0.99955950883 8.80982333e-05 8.8098241733e-05 8.8098247583e-05 8.8098229518e-05 8.8098219717e-05 0.99964866698 7.026678313e-05 7.0266447899e-05 